{
    "query": "eicosapentaenoic acid",
    "result": [
        {
            "title": "Input interpretation",
            "images": [
                {
                    "url": "http://www4c.wolframalpha.com/Calculate/MSP/MSP17441de1h0b0c0608f0b00001d5a80ef50i488g7?MSPStoreType=image/gif&s=32",
                    "alt": "eicosapentaenoic acid",
                    "title": "eicosapentaenoic acid",
                    "format": 1,
                    "dimensions": [143, 18],
                    "cachedHashCode": 0,
                    "imageAcquired": false
                }
            ],
            "number-of-images": 1
        },
        {
            "title": "Chemical names and formulas",
            "images": [
                {
                    "url": "http://www4c.wolframalpha.com/Calculate/MSP/MSP17451de1h0b0c0608f0b0000678i4eg3681e168d?MSPStoreType=image/gif&s=32",
                    "alt": "formula | CH_3(CH_2CH=CH)_5(CH_2)_3CO_2H compound formula | C_20H_30O_2 name | eicosapentaenoic acid IUPAC name | (5Z,8Z,11Z,14Z,17Z)-icosa-5,8,11,14,17-pentaenoic acid",
                    "title": "formula | CH_3(CH_2CH=CH)_5(CH_2)_3CO_2H compound formula | C_20H_30O_2 name | eicosapentaenoic acid IUPAC name | (5Z,8Z,11Z,14Z,17Z)-icosa-5,8,11,14,17-pentaenoic acid",
                    "format": 1,
                    "dimensions": [496, 151],
                    "cachedHashCode": 0,
                    "imageAcquired": false
                }
            ],
            "number-of-images": 1
        },
        {
            "title": "Structure diagram",
            "images": [
                {
                    "url": "http://www4c.wolframalpha.com/Calculate/MSP/MSP17461de1h0b0c0608f0b000023i0474f5b1bb5ag?MSPStoreType=image/gif&s=32",
                    "alt": "",
                    "title": "",
                    "format": 1,
                    "dimensions": [219, 257],
                    "cachedHashCode": 0,
                    "imageAcquired": false
                }
            ],
            "number-of-images": 1
        },
        {
            "title": "3D structure",
            "images": [
                {
                    "url": "http://www4c.wolframalpha.com/Calculate/MSP/MSP17471de1h0b0c0608f0b00005fc2h7a6efb8d280?MSPStoreType=image/gif&s=32",
                    "alt": "",
                    "title": "",
                    "format": 1,
                    "dimensions": [371, 164],
                    "cachedHashCode": 0,
                    "imageAcquired": false
                }
            ],
            "number-of-images": 1
        },
        {
            "title": "Basic properties",
            "images": [
                {
                    "url": "http://www4c.wolframalpha.com/Calculate/MSP/MSP17481de1h0b0c0608f0b0000582917ea9f7d7dgc?MSPStoreType=image/gif&s=32",
                    "alt": "molecular weight | 302.451 g/mol phase | liquid  (at STP) melting point | -53.5 °C boiling point | 439 °C density | 0.943 g/cm^3",
                    "title": "molecular weight | 302.451 g/mol phase | liquid  (at STP) melting point | -53.5 °C boiling point | 439 °C density | 0.943 g/cm^3",
                    "format": 1,
                    "dimensions": [252, 164],
                    "cachedHashCode": 0,
                    "imageAcquired": false
                }
            ],
            "number-of-images": 1
        },
        {
            "title": "Hydrophobicity and permeability properties",
            "images": [
                {
                    "url": "http://www4c.wolframalpha.com/Calculate/MSP/MSP17501de1h0b0c0608f0b00006af0ich2ha430e2d?MSPStoreType=image/gif&s=32",
                    "alt": "experimental LogP hydrophobicity | 6.1 predicted LogP hydrophobicity | 6.53 predicted LogS | -6.02",
                    "title": "experimental LogP hydrophobicity | 6.1 predicted LogP hydrophobicity | 6.53 predicted LogS | -6.02",
                    "format": 1,
                    "dimensions": [312, 100],
                    "cachedHashCode": 0,
                    "imageAcquired": false
                }
            ],
            "number-of-images": 1
        },
        {
            "title": "Basic drug properties",
            "images": [
                {
                    "url": "http://www4c.wolframalpha.com/Calculate/MSP/MSP17511de1h0b0c0608f0b000014a2f0fdcd4dd2h4?MSPStoreType=image/gif&s=32",
                    "alt": "approval status | approved  |  nutraceutical  |  small molecule drug categories | dietary supplement  |  micronutrient dosage forms | oral: capsule",
                    "title": "approval status | approved  |  nutraceutical  |  small molecule drug categories | dietary supplement  |  micronutrient dosage forms | oral: capsule",
                    "format": 1,
                    "dimensions": [449, 100],
                    "cachedHashCode": 0,
                    "imageAcquired": false
                }
            ],
            "number-of-images": 1
        },
        {
            "title": "Liquid properties (at STP)",
            "images": [
                {
                    "url": "http://www4c.wolframalpha.com/Calculate/MSP/MSP17521de1h0b0c0608f0b00002d8cb49e49f33g4e?MSPStoreType=image/gif&s=32",
                    "alt": "density | 0.943 g/cm^3 vapor pressure | 6×10^-9 mmHg  (at 25 °C) refractive index | 1.498",
                    "title": "density | 0.943 g/cm^3 vapor pressure | 6×10^-9 mmHg  (at 25 °C) refractive index | 1.498",
                    "format": 1,
                    "dimensions": [304, 100],
                    "cachedHashCode": 0,
                    "imageAcquired": false
                }
            ],
            "number-of-images": 1
        },
        {
            "title": "Thermodynamic properties",
            "images": [
                {
                    "url": "http://www4c.wolframalpha.com/Calculate/MSP/MSP17541de1h0b0c0608f0b00002hgb8fe6b7hbdaad?MSPStoreType=image/gif&s=32",
                    "alt": "specific heat of vaporization | 0.252 kJ/g (at STP)",
                    "title": "specific heat of vaporization | 0.252 kJ/g (at STP)",
                    "format": 1,
                    "dimensions": [296, 57],
                    "cachedHashCode": 0,
                    "imageAcquired": false
                }
            ],
            "number-of-images": 1
        },
        {
            "title": "Chemical identifiers",
            "images": [
                {
                    "url": "http://www4c.wolframalpha.com/Calculate/MSP/MSP17561de1h0b0c0608f0b00005dc0i7b51261b281?MSPStoreType=image/gif&s=32",
                    "alt": "CAS number | 10417-94-4 Beilstein number | 1714433 PubChem CID number | 446284 PubChem SID number | 11533194",
                    "title": "CAS number | 10417-94-4 Beilstein number | 1714433 PubChem CID number | 446284 PubChem SID number | 11533194",
                    "format": 1,
                    "dimensions": [278, 132],
                    "cachedHashCode": 0,
                    "imageAcquired": false
                }
            ],
            "number-of-images": 1
        },
        {
            "title": "Safety properties",
            "images": [
                {
                    "url": "http://www4c.wolframalpha.com/Calculate/MSP/MSP17571de1h0b0c0608f0b00005agi91763f9537ca?MSPStoreType=image/gif&s=32",
                    "alt": "flash point | 93.33 °C",
                    "title": "flash point | 93.33 °C",
                    "format": 1,
                    "dimensions": [173, 36],
                    "cachedHashCode": 0,
                    "imageAcquired": false
                }
            ],
            "number-of-images": 1
        }
    ]
}